----- GAMESS execution script 'rungms' -----
This job is running on host localhost
under operating system Linux at Wed May 21 18:05:09 JST 2014
PBS has assigned the following compute nodes to this run:
c2125
Copying input file 000000962.4.inp to your run's scratch directory...

 Distributed Data Interface kickoff program.
 Initiating 2 compute processes on 1 nodes to run the following command:
 /home/maho/pubchemqc.quest/build/gamess/gamess.00.x 000000962.4 

          ******************************************************
          *         GAMESS VERSION =  1 MAY 2013 (R1)          *
          *             FROM IOWA STATE UNIVERSITY             *
          * M.W.SCHMIDT, K.K.BALDRIDGE, J.A.BOATZ, S.T.ELBERT, *
          *   M.S.GORDON, J.H.JENSEN, S.KOSEKI, N.MATSUNAGA,   *
          *          K.A.NGUYEN, S.J.SU, T.L.WINDUS,           *
          *       TOGETHER WITH M.DUPUIS, J.A.MONTGOMERY       *
          *         J.COMPUT.CHEM.  14, 1347-1363(1993)        *
          **************** 64 BIT INTEL VERSION ****************

  SINCE 1993, STUDENTS AND POSTDOCS WORKING AT IOWA STATE UNIVERSITY
  AND ALSO IN THEIR VARIOUS JOBS AFTER LEAVING ISU HAVE MADE IMPORTANT
  CONTRIBUTIONS TO THE CODE:
     IVANA ADAMOVIC, CHRISTINE AIKENS, YURI ALEXEEV, POOJA ARORA,
     ANDREY ASADCHEV, ROB BELL, PRADIPTA BANDYOPADHYAY, JONATHAN BENTZ,
     BRETT BODE, GALINA CHABAN, WEI CHEN, CHEOL HO CHOI, PAUL DAY,
     ALBERT DEFUSCO, TIM DUDLEY, DMITRI FEDOROV, GRAHAM FLETCHER,
     MARK FREITAG, KURT GLAESEMANN, DAN KEMP, GRANT MERRILL,
     NORIYUKI MINEZAWA, JONATHAN MULLIN, TAKESHI NAGATA,
     SEAN NEDD, HEATHER NETZLOFF, BOSILJKA NJEGIC, RYAN OLSON, MIKE PAK,
     JIM SHOEMAKER, LYUDMILA SLIPCHENKO, SAROM SOK, JIE SONG,
     TETSUYA TAKETSUGU, SIMON WEBB, SOOHAENG YOO, FEDERICO ZAHARIEV

  ADDITIONAL CODE HAS BEEN PROVIDED BY COLLABORATORS IN OTHER GROUPS:
     IOWA STATE UNIVERSITY:
          JOE IVANIC, LAIMUTIS BYTAUTAS, KLAUS RUEDENBERG
     UNIVERSITY OF TOKYO: KIMIHIKO HIRAO, TAKAHITO NAKAJIMA,
          TAKAO TSUNEDA, MUNEAKI KAMIYA, SUSUMU YANAGISAWA,
          KIYOSHI YAGI, MAHITO CHIBA, SEIKEN TOKURA, NAOAKI KAWAKAMI
     UNIVERSITY OF AARHUS: FRANK JENSEN
     UNIVERSITY OF IOWA: VISVALDAS KAIRYS, HUI LI
     NATIONAL INST. OF STANDARDS AND TECHNOLOGY: WALT STEVENS, DAVID GARMER
     UNIVERSITY OF PISA: BENEDETTA MENNUCCI, JACOPO TOMASI
     UNIVERSITY OF MEMPHIS: HENRY KURTZ, PRAKASHAN KORAMBATH
     UNIVERSITY OF ALBERTA: TOBY ZENG, MARIUSZ KLOBUKOWSKI
     UNIVERSITY OF NEW ENGLAND: MARK SPACKMAN
     MIE UNIVERSITY: HIROAKI UMEDA
     MICHIGAN STATE UNIVERSITY:
          KAROL KOWALSKI, MARTA WLOCH, JEFFREY GOUR, JESSE LUTZ,
          WEI LI, PIOTR PIECUCH
     UNIVERSITY OF SILESIA: MONIKA MUSIAL, STANISLAW KUCHARSKI
     FACULTES UNIVERSITAIRES NOTRE-DAME DE LA PAIX:
          OLIVIER QUINET, BENOIT CHAMPAGNE
     UNIVERSITY OF CALIFORNIA - SANTA BARBARA: BERNARD KIRTMAN
     INSTITUTE FOR MOLECULAR SCIENCE:
          KAZUYA ISHIMURA, MICHIO KATOUDA, AND SHIGERU NAGASE
     UNIVERSITY OF NOTRE DAME: DAN CHIPMAN
     KYUSHU UNIVERSITY:
          HARUYUKI NAKANO,
          FENG LONG GU, JACEK KORCHOWIEC, MARCIN MAKOWSKI, AND YURIKO AOKI,
          HIROTOSHI MORI AND EISAKU MIYOSHI
     PENNSYLVANIA STATE UNIVERSITY:
          TZVETELIN IORDANOV, CHET SWALINA, JONATHAN SKONE,
          SHARON HAMMES-SCHIFFER
     WASEDA UNIVERSITY:
          MASATO KOBAYASHI, TOMOKO AKAMA, TSUGUKI TOUMA,
          TAKESHI YOSHIKAWA, YASUHIRO IKABATA, HIROMI NAKAI
     NANJING UNIVERSITY: SHUHUA LI
     UNIVERSITY OF NEBRASKA:
          PEIFENG SU, DEJUN SI, NANDUN THELLAMUREGE, YALI WANG, HUI LI
     UNIVERSITY OF ZURICH:
          ROBERTO PEVERATI, KIM BALDRIDGE
     N. COPERNICUS UNIVERSITY AND JACKSON STATE UNIVERSITY:
          MARIA BARYSZ


 PARALLEL VERSION RUNNING ON     2 PROCESSORS IN     1 NODES.

 EXECUTION OF GAMESS BEGUN Wed May 21 18:05:09 2014

            ECHO OF THE FIRST FEW INPUT CARDS -
 INPUT CARD> $CONTRL RUNTYP=OPTIMIZE UNITS=ANGS DFTTYP=B3LYPV1R $END                        
 INPUT CARD> $BASIS GBASIS=N31 NGAUSS=6 NDFUNC=1 $END                                       
 INPUT CARD> $ZMAT DLC=.T. AUTO=.T. $END                                                    
 INPUT CARD> $SCF DIRSCF=.T. FDIFF=.T. $END                                                 
 INPUT CARD> $STATPT NSTEP=3 OPTTOL=5D-4 $END                                               
 INPUT CARD> $SYSTEM TIMLIM=99999999999 MWORDS=200 $END                                     
 INPUT CARD>                                                                                
 INPUT CARD> $DATA                                                                          
 INPUT CARD>PUBCHEM 000000962 B3LYP 6-31G(d) gamess geometry optimization                   
 INPUT CARD>C1                                                                              
 INPUT CARD>O      8.0      0.9784782017    0.0224130404    0.0994725951                    
 INPUT CARD>H      1.0      1.9459769733    0.0279738016    0.0505799279                    
 INPUT CARD>H      1.0      0.7023051046    0.1274709488   -0.8231103953                    
 INPUT CARD> $END                                                                           
 INPUT CARD>                                                                                
 INPUT CARD>                                                                                
  200000000 WORDS OF MEMORY AVAILABLE

     BASIS OPTIONS
     -------------
     GBASIS=N31          IGAUSS=       6      POLAR=POPN31  
     NDFUNC=       1     NFFUNC=       0     DIFFSP=       F
     NPFUNC=       0      DIFFS=       F     BASNAM=        


     RUN TITLE
     ---------
 PUBCHEM 000000962 B3LYP 6-31G(d) gamess geometry optimization                   

 THE POINT GROUP OF THE MOLECULE IS C1      
 THE ORDER OF THE PRINCIPAL AXIS IS     0

 ATOM      ATOMIC                      COORDINATES (BOHR)
           CHARGE         X                   Y                   Z
 O           8.0     1.8490556862        0.0423545049        0.1879759480
 H           1.0     3.6773632580        0.0528628199        0.0955822042
 H           1.0     1.3271642075        0.2408851646       -1.5554531048

          INTERNUCLEAR DISTANCES (ANGS.)
          ------------------------------

                1 O          2 H          3 H     

   1 O       0.0000000    0.9687493 *  0.9687456 *
   2 H       0.9687493 *  0.0000000    1.5231396 *
   3 H       0.9687456 *  1.5231396 *  0.0000000  

  * ... LESS THAN  3.000


     ATOMIC BASIS SET
     ----------------
 THE CONTRACTED PRIMITIVE FUNCTIONS HAVE BEEN UNNORMALIZED
 THE CONTRACTED BASIS FUNCTIONS ARE NOW NORMALIZED TO UNITY

  SHELL TYPE  PRIMITIVE        EXPONENT          CONTRACTION COEFFICIENT(S)

 O         

      1   S       1          5484.6716600    0.001831074430
      1   S       2           825.2349460    0.013950172200
      1   S       3           188.0469580    0.068445078098
      1   S       4            52.9645000    0.232714335992
      1   S       5            16.8975704    0.470192897984
      1   S       6             5.7996353    0.358520852987

      2   L       7            15.5396162   -0.110777549525    0.070874268231
      2   L       8             3.5999336   -0.148026262701    0.339752839147
      2   L       9             1.0137618    1.130767015354    0.727158577316

      3   L      10             0.2700058    1.000000000000    1.000000000000

      4   D      11             0.8000000    1.000000000000

 H         

      5   S      12            18.7311370    0.033494604338
      5   S      13             2.8253944    0.234726953484
      5   S      14             0.6401217    0.813757326146

      6   S      15             0.1612778    1.000000000000

 H         

      7   S      16            18.7311370    0.033494604338
      7   S      17             2.8253944    0.234726953484
      7   S      18             0.6401217    0.813757326146

      8   S      19             0.1612778    1.000000000000

 TOTAL NUMBER OF BASIS SET SHELLS             =    8
 NUMBER OF CARTESIAN GAUSSIAN BASIS FUNCTIONS =   19
 NUMBER OF ELECTRONS                          =   10
 CHARGE OF MOLECULE                           =    0
 SPIN MULTIPLICITY                            =    1
 NUMBER OF OCCUPIED ORBITALS (ALPHA)          =    5
 NUMBER OF OCCUPIED ORBITALS (BETA )          =    5
 TOTAL NUMBER OF ATOMS                        =    3
 THE NUCLEAR REPULSION ENERGY IS        9.0874076735

     LEBEDEV GRID-BASED DFT OPTIONS
     ------------------------------
     DFTTYP=B3LYPV1R
     NRAD  =      96     NLEB  =     302
     NRAD0 =      24     NLEB0 =     110
     SWOFF =    5.00E-03 (PURE SCF -> DFT)
     SWITCH=    3.00E-04 (COARSE -> TIGHT GRID)
     THRESH=    0.00E+00 GTHRE=    1.00E+00

 GRIMME'S EMPIRICAL DISPERSION CORRECTION= F

     $CONTRL OPTIONS
     ---------------
 SCFTYP=RHF          RUNTYP=OPTIMIZE     EXETYP=RUN     
 MPLEVL=       0     CITYP =NONE         CCTYP =NONE         VBTYP =NONE    
 DFTTYP=B3LYPV1R     TDDFT =NONE    
 MULT  =       1     ICHARG=       0     NZVAR =       0     COORD =UNIQUE  
 PP    =NONE         RELWFN=NONE         LOCAL =NONE         NUMGRD=       F
 ISPHER=      -1     NOSYM =       0     MAXIT =      30     UNITS =ANGS    
 PLTORB=       F     MOLPLT=       F     AIMPAC=       F     FRIEND=        
 NPRINT=       7     IREST =       0     GEOM  =INPUT   
 NORMF =       0     NORMP =       0     ITOL  =      20     ICUT  =       9
 INTTYP=BEST         GRDTYP=BEST         QMTTOL= 1.0E-06

     $SYSTEM OPTIONS
     ---------------
  REPLICATED MEMORY=   200000000 WORDS (ON EVERY NODE).
 DISTRIBUTED MEMDDI=           0 MILLION WORDS IN AGGREGATE,
 MEMDDI DISTRIBUTED OVER   2 PROCESSORS IS           0 WORDS/PROCESSOR.
 TOTAL MEMORY REQUESTED ON EACH PROCESSOR=   200000000 WORDS.
 TIMLIM= 99999999999.00 MINUTES, OR ********* DAYS.
 PARALL= T  BALTYP=  DLB     KDIAG=    0  COREFL= F
 MXSEQ2=     300 MXSEQ3=     150

          ----------------
          PROPERTIES INPUT
          ----------------

     MOMENTS            FIELD           POTENTIAL          DENSITY
 IEMOM =       1   IEFLD =       0   IEPOT =       0   IEDEN =       0
 WHERE =COMASS     WHERE =NUCLEI     WHERE =NUCLEI     WHERE =NUCLEI  
 OUTPUT=BOTH       OUTPUT=BOTH       OUTPUT=BOTH       OUTPUT=BOTH    
 IEMINT=       0   IEFINT=       0                     IEDINT=       0
                                                       MORB  =       0
          EXTRAPOLATION IN EFFECT
          DIIS IN EFFECT
 ORBITAL PRINTING OPTION: NPREO=     1    19     2     1

     -------------------------------
     INTEGRAL TRANSFORMATION OPTIONS
     -------------------------------
     NWORD  =            0
     CUTOFF = 1.0E-09     MPTRAN =       0
     DIRTRF =       T     AOINTS =DUP     

          ----------------------
          INTEGRAL INPUT OPTIONS
          ----------------------
 NOPK  =       1 NORDER=       0 SCHWRZ=       T

     ------------------------------------------
     THE POINT GROUP IS C1 , NAXIS= 0, ORDER= 1
     ------------------------------------------

     DIMENSIONS OF THE SYMMETRY SUBSPACES ARE
 A   =   19

 ..... DONE SETTING UP THE RUN .....
 CPU     0: STEP CPU TIME=     0.08 TOTAL CPU TIME=        0.1 (    0.0 MIN)
 TOTAL WALL CLOCK TIME=        0.1 SECONDS, CPU UTILIZATION IS  72.73%


          -----------------------------
          STATIONARY POINT LOCATION RUN
          -----------------------------

 OBTAINING INITIAL HESSIAN, HESS=GUESS   
 CARTESIAN COORDINATE OPTIMIZATION USING BADGER'S RULE FORCE CONSTANT GUESS

          PARAMETERS CONTROLLING GEOMETRY SEARCH ARE
          METHOD =QA                  UPHESS =BFGS    
          NNEG   =         0          NFRZ   =         0
          NSTEP  =         3          IFOLOW =         1
          HESS   =GUESS               RESTAR =         F
          IHREP  =         0          HSSEND =         F
          NPRT   =         0          NPUN   =         0
          OPTTOL = 5.000E-04          RMIN   = 1.500E-03
          RMAX   = 1.000E-01          RLIM   = 7.000E-02
          DXMAX  = 3.000E-01          PURIFY =         F
          MOVIE  =         F          TRUPD  =         T
          TRMAX  = 5.000E-01          TRMIN  = 5.000E-02
          ITBMAT =         5          STPT   =         F
          STSTEP = 1.000E-02          PROJCT=          T

 BEGINNING GEOMETRY SEARCH POINT NSERCH=   0 ...

 COORDINATES OF ALL ATOMS ARE (ANGS)
   ATOM   CHARGE       X              Y              Z
 ------------------------------------------------------------
 O           8.0   0.9784782017   0.0224130404   0.0994725951
 H           1.0   1.9459769733   0.0279738016   0.0505799279
 H           1.0   0.7023051046   0.1274709488  -0.8231103953

          ********************
          1 ELECTRON INTEGRALS
          ********************
 ...... END OF ONE-ELECTRON INTEGRALS ......
 CPU     0: STEP CPU TIME=     0.00 TOTAL CPU TIME=        0.1 (    0.0 MIN)
 TOTAL WALL CLOCK TIME=        0.1 SECONDS, CPU UTILIZATION IS  61.54%

          -------------
          GUESS OPTIONS
          -------------
          GUESS =HUCKEL            NORB  =       0          NORDER=       0
          MIX   =       F          PRTMO =       F          PUNMO =       F
          TOLZ  = 1.0E-08          TOLE  = 1.0E-05
          SYMDEN=       F          PURIFY=       F

 INITIAL GUESS ORBITALS GENERATED BY HUCKEL   ROUTINE.
 HUCKEL GUESS REQUIRES      5005 WORDS.

 SYMMETRIES FOR INITIAL GUESS ORBITALS FOLLOW.   BOTH SET(S).
     5 ORBITALS ARE OCCUPIED (    1 CORE ORBITALS).
     2=A        3=A        4=A        5=A        6=A        7=A        8=A   
     9=A       10=A       11=A       12=A       13=A       14=A       15=A   
 ...... END OF INITIAL ORBITAL SELECTION ......
 CPU     0: STEP CPU TIME=     0.00 TOTAL CPU TIME=        0.1 (    0.0 MIN)
 TOTAL WALL CLOCK TIME=        0.1 SECONDS, CPU UTILIZATION IS  61.54%

                    ----------------------
                    AO INTEGRAL TECHNOLOGY
                    ----------------------
     S,P,L SHELL ROTATED AXIS INTEGRALS, REPROGRAMMED BY
        KAZUYA ISHIMURA (IMS) AND JOSE SIERRA (SYNSTAR).
     S,P,D,L SHELL ROTATED AXIS INTEGRALS PROGRAMMED BY
        KAZUYA ISHIMURA (INSTITUTE FOR MOLECULAR SCIENCE).
     S,P,D,F,G SHELL TO TOTAL QUARTET ANGULAR MOMENTUM SUM 5,
        ERIC PROGRAM BY GRAHAM FLETCHER (ELORET AND NASA ADVANCED
        SUPERCOMPUTING DIVISION, AMES RESEARCH CENTER).
     S,P,D,F,G,L SHELL GENERAL RYS QUADRATURE PROGRAMMED BY
        MICHEL DUPUIS (PACIFIC NORTHWEST NATIONAL LABORATORY).

          --------------------
          2 ELECTRON INTEGRALS
          --------------------

 DIRECT SCF METHOD SKIPS INTEGRAL STORAGE ON DISK.
 DIRECT TRANSFORMATION SKIPS AO INTEGRAL STORAGE ON DISK.
  ...... END OF TWO-ELECTRON INTEGRALS .....
 CPU     0: STEP CPU TIME=     0.02 TOTAL CPU TIME=        0.1 (    0.0 MIN)
 TOTAL WALL CLOCK TIME=        0.2 SECONDS, CPU UTILIZATION IS  66.67%

          --------------------------
          R-B3LYPV1R SCF CALCULATION
          --------------------------

     NUCLEAR ENERGY =         9.0874076735
     MAXIT =   30     NPUNCH=    2
     EXTRAP=T  DAMP=F  SHIFT=F  RSTRCT=F  DIIS=T  DEM=F  SOSCF=F
         DENSITY MATRIX CONVERGENCE THRESHOLD=  2.00E-05
     COARSE -> FINE DFT GRID SWITCH THRESHOLD=  3.00E-04 (SWITCH IN $DFT)
                   HF -> DFT SWITCH THRESHOLD=  5.00E-03 (SWOFF IN $DFT)
     MEMORY REQUIRED FOR RHF ITERS=    182430 WORDS.

 DIRECT SCF CALCULATION, SCHWRZ=T   FDIFF=T,  DIRTHR=  0.00E+00 NITDIR=10
 SCHWARZ INEQUALITY OVERHEAD:       190 INTEGRALS, T=        0.00

 DFT CODE IS SWITCHING FROM THE FINE GRID NRAD= 96,  NLEB=  302
                      TO THE COARSE GRID NRAD0= 24, NLEB0=  110

     EXCHANGE FUNCTIONAL   =B88&HFX   
     CORRELATION FUNCTIONAL=LYP88VWN1R
     DFT THRESHOLD         =.460E-07
     GRID CHANGE THRESHOLD =.300E-03
 FOR AN EULER-MACLAURIN QUADRATURE USING  96 RADIAL POINTS:
 SMALLEST GAUSSIAN PRIMITIVE EXPONENT=        0.1612777588 OF TYPE -S-
 ON ATOM NUMBER   2 HAS RADIAL NORMALIZATION=  1.000000
  LARGEST GAUSSIAN PRIMITIVE EXPONENT=     5484.6716600000 OF TYPE -S-
 ON ATOM NUMBER   1 HAS RADIAL NORMALIZATION=  1.000000
 DFT IS SWITCHED OFF, PERFORMING PURE SCF UNTIL SWOFF THRESHOLD IS REACHED.

                                                                                   NONZERO     BLOCKS
 ITER EX DEM     TOTAL ENERGY        E CHANGE  DENSITY CHANGE    DIIS ERROR      INTEGRALS    SKIPPED
   1  0  0      -75.7624408889   -75.7624408889   0.257323680   0.653102131          12073          0
          * * *   INITIATING DIIS PROCEDURE   * * *
   2  1  0      -75.9972628173    -0.2348219284   0.073518611   0.087833010          12073          0
   3  2  0      -76.0084579972    -0.0111951799   0.032241247   0.024115762          12073          0
   4  3  0      -76.0097292457    -0.0012712485   0.003391759   0.003455992          12073          0
 CONVERGED TO SWOFF, SO DFT CALCULATION IS NOW SWITCHED ON.
          * * *   INITIATING DIIS PROCEDURE   * * *
   5  4  0      -76.4054753422    -0.3957460965   0.109201252   0.078135864          12073          0
   6  5  0      -76.4086190524    -0.0031437102   0.021758190   0.021134339          12073          0
   7  6  0      -76.4084546950     0.0001643574   0.011713246   0.025412558          12073          0
   8  7  0      -76.4089199693    -0.0004652742   0.000544684   0.000559889          12073          0
   9  8  0      -76.4089202730    -0.0000003037   0.000018102   0.000046077          12073          0
 DFT CODE IS SWITCHING BACK TO THE FINE GRID
          * * *   INITIATING DIIS PROCEDURE   * * *
  10  9  0      -76.4089554154    -0.0000351424   0.000794269   0.000600838          12073          0
  11 10  0      -76.4089561911    -0.0000007757   0.000084703   0.000121052          12073          0
  12 11  0      -76.4089562028    -0.0000000117   0.000046692   0.000046861          12073          0
  13 12  0      -76.4089562043    -0.0000000014   0.000014886   0.000032262          12073          0
  14 13  0      -76.4089562050    -0.0000000008   0.000000848   0.000001855          12073          0

          -----------------
          DENSITY CONVERGED
          -----------------
     TIME TO FORM FOCK OPERATORS=       1.1 SECONDS (       0.1 SEC/ITER)
     FOCK TIME ON FIRST ITERATION=       0.0, LAST ITERATION=       0.2
     TIME TO SOLVE SCF EQUATIONS=       0.0 SECONDS (       0.0 SEC/ITER)

 FINAL R-B3LYPV1R ENERGY IS      -76.4089562050 AFTER  14 ITERATIONS
 DFT EXCHANGE + CORRELATION ENERGY =        -7.5551803299
 TOTAL ELECTRON NUMBER             =        10.0000089723

          ------------
          EIGENVECTORS
          ------------

                      1          2          3          4          5
                  -19.1382    -0.9979    -0.5171    -0.3722    -0.2912
                     A          A          A          A          A   
    1  O  1  S    0.992860  -0.209502  -0.000001  -0.088096   0.000001
    2  O  1  S    0.026224   0.469215   0.000003   0.177257  -0.000001
    3  O  1  X    0.000636   0.073713   0.422491  -0.318573   0.000005
    4  O  1  Y    0.000102   0.011794  -0.033798  -0.050969   0.640442
    5  O  1  Z   -0.000894  -0.103586   0.296809   0.447669   0.072922
    6  O  1  S    0.010110   0.439534   0.000000   0.410420  -0.000010
    7  O  1  X    0.000001   0.035019   0.220267  -0.214848   0.000004
    8  O  1  Y    0.000000   0.005602  -0.017619  -0.034372   0.502796
    9  O  1  Z   -0.000001  -0.049208   0.154745   0.301911   0.057254
   10  O  1 XX   -0.007760   0.017877   0.033696  -0.016883   0.000001
   11  O  1 YY   -0.007725  -0.010578  -0.000431  -0.000703   0.005635
   12  O  1 ZZ   -0.007753   0.016616  -0.033265  -0.034215  -0.005634
   13  O  1 XY    0.000001  -0.000168   0.001557  -0.003282   0.020326
   14  O  1 XZ   -0.000011   0.001467  -0.013671   0.028827   0.002315
   15  O  1 YZ    0.000004  -0.003621   0.004374   0.004462  -0.028193
   16  H  2  S    0.000370   0.139133   0.237435  -0.143738   0.000001
   17  H  2  S   -0.001034   0.006452   0.141962  -0.114289   0.000005
   18  H  3  S    0.000370   0.139136  -0.237435  -0.143735   0.000005
   19  H  3  S   -0.001034   0.006455  -0.141961  -0.114285   0.000006

                      6          7          8          9         10
                    0.0626     0.1481     0.7724     0.8609     0.8908
                     A          A          A          A          A   
    1  O  1  S   -0.100641   0.000001   0.000000   0.037776  -0.000005
    2  O  1  S    0.119313  -0.000005   0.000002  -0.135663   0.000524
    3  O  1  X    0.162054   0.337604  -0.140654  -0.408581  -0.000209
    4  O  1  Y    0.025934  -0.027009   0.011256  -0.065375  -0.953303
    5  O  1  Z   -0.227715   0.237174  -0.098801   0.574157  -0.108283
    6  O  1  S    1.257706  -0.000013  -0.000001   0.135610  -0.000895
    7  O  1  X    0.275662   0.619560  -0.351387   0.221170   0.000305
    8  O  1  Y    0.044106  -0.049568   0.028109   0.035384   1.031999
    9  O  1  Z   -0.387348   0.435254  -0.246862  -0.310776   0.117118
   10  O  1 XX   -0.039157   0.015049   0.160056   0.106226   0.000128
   11  O  1 YY   -0.057716  -0.000194  -0.002049  -0.117048   0.002812
   12  O  1 ZZ   -0.033547  -0.014859  -0.158002   0.056678  -0.002461
   13  O  1 XY    0.001095   0.000695   0.007394  -0.008733   0.009415
   14  O  1 XZ   -0.009615  -0.006106  -0.064936   0.076678   0.001034
   15  O  1 YZ   -0.003218   0.001954   0.020776  -0.023145  -0.013046
   16  H  2  S   -0.096291  -0.107361   0.840219   0.711833  -0.000277
   17  H  2  S   -0.969028  -1.277689  -0.655418  -0.552143   0.000220
   18  H  3  S   -0.096284   0.107361  -0.840200   0.711857  -0.000281
   19  H  3  S   -0.968998   1.277717   0.655399  -0.552151   0.000244

                     11         12         13         14         15
                    0.8951     1.0658     1.1934     1.7291     1.7464
                     A          A          A          A          A   
    1  O  1  S    0.010515  -0.000004  -0.081932  -0.007434   0.000001
    2  O  1  S   -0.836012  -0.000035  -1.457479  -0.090121   0.000008
    3  O  1  X    0.322431  -0.807733  -0.232376  -0.005257   0.000000
    4  O  1  Y    0.051017   0.064626  -0.037199  -0.000842   0.000000
    5  O  1  Z   -0.453207  -0.567404   0.326610   0.007391  -0.000003
    6  O  1  S    1.409906   0.000107   3.596659   0.252410  -0.000021
    7  O  1  X   -0.477766   1.329404   0.638233   0.082877  -0.000001
    8  O  1  Y   -0.075829  -0.106357   0.102148   0.013255   0.000000
    9  O  1  Z    0.671526   0.933840  -0.896991  -0.116466   0.000006
   10  O  1 XX   -0.197009  -0.013123  -0.569452   0.061672   0.000017
   11  O  1 YY   -0.326274   0.000164  -0.253436   0.333507  -0.112412
   12  O  1 ZZ   -0.238121   0.012919  -0.478396  -0.462300   0.112403
   13  O  1 XY   -0.007374  -0.000605   0.016278  -0.098664   0.811265
   14  O  1 XZ    0.064803   0.005311  -0.142910   0.866861   0.092411
   15  O  1 YZ   -0.011755  -0.001701   0.029982   0.105894   0.562550
   16  H  2  S    0.467685   0.019327  -0.352081  -0.081727  -0.000000
   17  H  2  S   -0.373342  -0.926532  -0.773123  -0.042258   0.000004
   18  H  3  S    0.467687  -0.019386  -0.352082  -0.081718   0.000000
   19  H  3  S   -0.373293   0.926497  -0.773209  -0.042266   0.000007

                     16         17         18         19
                    1.7798     2.2805     2.5771     3.5519
                     A          A          A          A   
    1  O  1  S    0.000001  -0.051633  -0.000000  -0.467945
    2  O  1  S   -0.000003  -0.514848   0.000011   0.286720
    3  O  1  X    0.000000  -0.036354  -0.030182  -0.067316
    4  O  1  Y    0.007060  -0.005818   0.002415  -0.010772
    5  O  1  Z    0.000802   0.051085  -0.021202   0.094598
    6  O  1  S    0.000001   1.538695  -0.000023   3.689458
    7  O  1  X    0.000004   0.426652   0.687794   0.192801
    8  O  1  Y    0.034775   0.068269  -0.055029   0.030852
    9  O  1  Z    0.003954  -0.599538   0.483199  -0.270944
   10  O  1 XX    0.000006   0.514409   1.038594  -1.533944
   11  O  1 YY   -0.158815  -1.112904  -0.013284  -1.578268
   12  O  1 ZZ    0.158817   0.274256  -1.025320  -1.542255
   13  O  1 XY   -0.573198  -0.040999   0.047975  -0.001450
   14  O  1 XZ   -0.065158   0.359941  -0.421397   0.012724
   15  O  1 YZ    0.795011  -0.184799   0.134825  -0.004796
   16  H  2  S   -0.000005  -0.812287  -0.923405   0.115817
   17  H  2  S    0.000000  -0.141378   0.050204  -0.554510
   18  H  3  S   -0.000012  -0.812265   0.923438   0.115812
   19  H  3  S    0.000003  -0.141387  -0.050197  -0.554518
 ...... END OF RHF CALCULATION ......
 CPU     0: STEP CPU TIME=     1.17 TOTAL CPU TIME=        1.3 (    0.0 MIN)
 TOTAL WALL CLOCK TIME=        1.6 SECONDS, CPU UTILIZATION IS  78.88%

     ---------------------------------------------------------------------
     PROPERTIES FOR THE B3LYPV1R DFT FUNCTIONAL (RHF  TYPE) DENSITY MATRIX
     ---------------------------------------------------------------------

          -----------------
          ENERGY COMPONENTS
          -----------------

         WAVEFUNCTION NORMALIZATION =       1.0000000000

                ONE ELECTRON ENERGY =    -122.9355832221
                TWO ELECTRON ENERGY =      37.4392193436
           NUCLEAR REPULSION ENERGY =       9.0874076735
                                      ------------------
                       TOTAL ENERGY =     -76.4089562050

 ELECTRON-ELECTRON POTENTIAL ENERGY =      37.4392193436
  NUCLEUS-ELECTRON POTENTIAL ENERGY =    -198.7550174798
   NUCLEUS-NUCLEUS POTENTIAL ENERGY =       9.0874076735
                                      ------------------
             TOTAL POTENTIAL ENERGY =    -152.2283904627
               TOTAL KINETIC ENERGY =      75.8194342577
                 VIRIAL RATIO (V/T) =       2.0077753409

          ---------------------------------------
          MULLIKEN AND LOWDIN POPULATION ANALYSES
          ---------------------------------------

     ATOMIC MULLIKEN POPULATION IN EACH MOLECULAR ORBITAL

                      1          2          3          4          5

                  2.000000   2.000000   2.000000   2.000000   2.000000

    1             2.000250   1.706589   1.296651   1.770823   2.000000
    2            -0.000125   0.146702   0.351675   0.114592   0.000000
    3            -0.000125   0.146709   0.351674   0.114585   0.000000

               ----- POPULATIONS IN EACH AO -----
                             MULLIKEN      LOWDIN
              1  O  1  S      1.99259     1.97645
              2  O  1  S      0.90396     0.72014
              3  O  1  X      0.86086     0.79845
              4  O  1  Y      1.15489     1.13294
              5  O  1  Z      0.90678     0.85051
              6  O  1  S      0.97906     0.49650
              7  O  1  X      0.52005     0.61181
              8  O  1  Y      0.83601     0.85832
              9  O  1  Z      0.58256     0.66587
             10  O  1 XX      0.02672     0.20451
             11  O  1 YY     -0.01379     0.16589
             12  O  1 ZZ      0.01948     0.19577
             13  O  1 XY      0.00086     0.00087
             14  O  1 XZ      0.00226     0.00362
             15  O  1 YZ      0.00203     0.00216
             16  H  2  S      0.47609     0.43687
             17  H  2  S      0.13676     0.22144
             18  H  3  S      0.47609     0.43643
             19  H  3  S      0.13676     0.22144

          ----- MULLIKEN ATOMIC OVERLAP POPULATIONS -----
          (OFF-DIAGONAL ELEMENTS NEED TO BE MULTIPLIED BY 2)

             1           2           3

    1    8.2891645
    2    0.2425712   0.3936809
    3    0.2425763  -0.0234075   0.3936745

          TOTAL MULLIKEN AND LOWDIN ATOMIC POPULATIONS
       ATOM         MULL.POP.    CHARGE          LOW.POP.     CHARGE
    1 O             8.774312   -0.774312         8.683814   -0.683814
    2 H             0.612845    0.387155         0.658310    0.341690
    3 H             0.612843    0.387157         0.657876    0.342124

          -------------------------------
          BOND ORDER AND VALENCE ANALYSIS     BOND ORDER THRESHOLD=0.050
          -------------------------------

                   BOND                       BOND                       BOND
  ATOM PAIR DIST  ORDER      ATOM PAIR DIST  ORDER      ATOM PAIR DIST  ORDER
    1   2  0.969  0.816        1   3  0.969  0.816

                       TOTAL       BONDED        FREE
      ATOM            VALENCE     VALENCE     VALENCE
    1 O                 1.632       1.632      -0.000
    2 H                 0.811       0.811      -0.000
    3 H                 0.811       0.811      -0.000

          ---------------------
          ELECTROSTATIC MOMENTS
          ---------------------

 POINT   1           X           Y           Z (BOHR)    CHARGE
                 1.922159    0.054052    0.085248        0.00 (A.U.)
         DX          DY          DZ         /D/  (DEBYE)
     1.209694    0.193564   -1.699929    2.095373
 ...... END OF PROPERTY EVALUATION ......
 CPU     0: STEP CPU TIME=     0.02 TOTAL CPU TIME=        1.3 (    0.0 MIN)
 TOTAL WALL CLOCK TIME=        1.6 SECONDS, CPU UTILIZATION IS  79.63%

 BEGINNING ONE ELECTRON GRADIENT...
 ..... END OF 1-ELECTRON GRADIENT ......
 CPU     0: STEP CPU TIME=     0.00 TOTAL CPU TIME=        1.3 (    0.0 MIN)
 TOTAL WALL CLOCK TIME=        1.6 SECONDS, CPU UTILIZATION IS  79.14%

          ----------------------
          GRADIENT OF THE ENERGY
          ----------------------
 MEMORY FOR GRID POINT CONTRIBUTIONS TO THE DFT GRADIENT=    135315 WORDS.
 CPU     0: STEP CPU TIME=     0.29 TOTAL CPU TIME=        1.6 (    0.0 MIN)
 TOTAL WALL CLOCK TIME=        1.9 SECONDS, CPU UTILIZATION IS  81.44%

 THE MINIMUM MEMORY REQUIRED FOR THIS RUN IS      70959 WORDS.
 USING    1046479 WORDS FOR 2E- DERIVATIVE INTEGRAL CONTRIBUTIONS.
 THE COARSE/FINE SCHWARZ SCREENINGS SKIPPED            0/           0 BLOCKS.
 THE NUMBER OF GRADIENT INTEGRAL BLOCKS COMPUTED WAS       599
 ...... END OF 2-ELECTRON GRADIENT ......
 CPU     0: STEP CPU TIME=     0.02 TOTAL CPU TIME=        1.6 (    0.0 MIN)
 TOTAL WALL CLOCK TIME=        2.0 SECONDS, CPU UTILIZATION IS  82.05%

          NSERCH=  0     ENERGY=     -76.4089562

                                 -----------------------
                                 GRADIENT (HARTREE/BOHR)
                                 -----------------------
        ATOM     ZNUC       DE/DX         DE/DY         DE/DZ
 --------------------------------------------------------------
    1  O            8.0    -0.0000440     0.0000019    -0.0000165
    2  H            1.0     0.0000434    -0.0000002     0.0000015
    3  H            1.0     0.0000006    -0.0000017     0.0000150

          MAXIMUM GRADIENT = 0.0000440    RMS GRADIENT = 0.0000219

 NSERCH:   0  E=      -76.4089562050  GRAD. MAX=  0.0000440  R.M.S.=  0.0000219


      ***** EQUILIBRIUM GEOMETRY LOCATED *****
 COORDINATES OF ALL ATOMS ARE (ANGS)
   ATOM   CHARGE       X              Y              Z
 ------------------------------------------------------------
 O           8.0   0.9784782017   0.0224130404   0.0994725951
 H           1.0   1.9459769733   0.0279738016   0.0505799279
 H           1.0   0.7023051046   0.1274709488  -0.8231103953

          INTERNUCLEAR DISTANCES (ANGS.)
          ------------------------------

                1 O          2 H          3 H     

   1 O       0.0000000    0.9687493 *  0.9687456 *
   2 H       0.9687493 *  0.0000000    1.5231396 *
   3 H       0.9687456 *  1.5231396 *  0.0000000  

  * ... LESS THAN  3.000


          NUCLEAR ENERGY    =        9.0874076735
          ELECTRONIC ENERGY =      -85.4963638785
          TOTAL ENERGY      =      -76.4089562050

 THE INITIAL GEOMETRY IS ALREADY CONVERGED,
 SO ORBITALS/PROPERTY OUTPUT IS ALREADY PRINTED ABOVE
  $VIB   
          IVIB=   0 IATOM=   0 ICOORD=   0 E=      -76.4089562050
 -4.404401291E-05 1.882726640E-06-1.653108187E-05 4.339421460E-05-1.691661085E-07
  1.482938031E-06 6.497983175E-07-1.713560532E-06 1.504814384E-05
  1.209694405E+00 1.935641161E-01-1.699929454E+00
 ......END OF GEOMETRY SEARCH......
 CPU     0: STEP CPU TIME=     0.00 TOTAL CPU TIME=        1.6 (    0.0 MIN)
 TOTAL WALL CLOCK TIME=        2.0 SECONDS, CPU UTILIZATION IS  82.05%
               1046551  WORDS OF DYNAMIC MEMORY USED
 EXECUTION OF GAMESS TERMINATED NORMALLY Wed May 21 18:05:11 2014
 DDI: 263624 bytes (0.3 MB / 0 MWords) used by master data server.

 ----------------------------------------
 CPU timing information for all processes
 ========================================
 0: 1.492 + 0.122 = 1.615
 1: 1.515 + 0.109 = 1.625
 ----------------------------------------
 ddikick.x: exited gracefully.
----- accounting info -----
Files used on the master node localhost were:
-rw-r--r-- 1 maho staff     505 May 21 18:05 ./000000962.4.F05
-rw-r--r-- 1 maho staff 1734160 May 21 18:05 ./000000962.4.F10
-rw-r--r-- 1 maho staff 1066520 May 21 18:05 ./000000962.4.F22
-rw-r--r-- 1 maho staff 1066520 May 21 18:05 ./000000962.4.F22.001
-rw-r--r-- 1 maho staff   10021 May 21 18:05 ./000000962.4.dat
-rw-r--r-- 1 maho staff     505 May 21 18:05 ./000000962.4.inp
Wed May 21 18:05:14 JST 2014
0.130u 0.048s 0:05.23 3.2%	0+0k 0+104io 0pf+0w
0.13user 0.04system 0:05.24elapsed 3%CPU (0avgtext+0avgdata 5808maxresident)k
0inputs+112outputs (0major+13720minor)pagefaults 0swaps
model name	: Intel(R) Core(TM)2 CPU         L7400  @ 1.50GHz
